Title: * Z:\Users\richard\work\projects\LTspice\rvb\AC_bandpass.asc
Date: Thu Jan 19 21:12:30 2012
Plotname: AC Analysis
Flags: complex forward log
No. Variables: 36
No. Points:          501
Offset:   0.0000000000000000e+000
Command: Linear Technology Corporation LTspice IV
Variables:
	0	frequency	frequency
	1	V(vout1)	voltage
	2	V(n001)	voltage
	3	V(vin)	voltage
	4	V(n008)	voltage
	5	V(n009)	voltage
	6	V(vout2)	voltage
	7	V(n002)	voltage
	8	V(n005)	voltage
	9	V(vout3)	voltage
	10	V(n003)	voltage
	11	V(n006)	voltage
	12	V(n004)	voltage
	13	V(n007)	voltage
	14	V(vout4)	voltage
	15	I(C8)	device_current
	16	I(C6)	device_current
	17	I(C7)	device_current
	18	I(C5)	device_current
	19	I(C4)	device_current
	20	I(C3)	device_current
	21	I(C1)	device_current
	22	I(C2)	device_current
	23	I(L4)	device_current
	24	I(L5)	device_current
	25	I(L3)	device_current
	26	I(L1)	device_current
	27	I(R9)	device_current
	28	I(R7)	device_current
	29	I(R6)	device_current
	30	I(R5)	device_current
	31	I(R4)	device_current
	32	I(R3)	device_current
	33	I(R1)	device_current
	34	I(R2)	device_current
	35	I(V1)	device_current
Values:
0		1.000000000000000e+001,0.000000000000000e+000
	2.992071222767247e-004,9.982293450082188e-003
	4.986884912888063e-004,1.996757605849762e-002
	1.000000000000000e+000,0.000000000000000e+000
	1.000099913866140e+000,-3.977327569452960e-006
	9.995301683391388e-001,-2.386572362854218e-002
	5.666529874191409e-004,1.271135718401971e-002
	1.000099840829396e+000,-4.769182780840764e-006
	9.994926275517291e-001,-1.908262710725957e-002
	2.856535169087809e-004,9.860202551484835e-003
	1.000099878894267e+000,-4.485216508923889e-006
	9.995470011196050e-001,-1.908874821938280e-002
	1.000049989756030e+000,-1.273230289967203e-006
	9.999587944203943e-001,-9.550064780437583e-003
	4.999793972101971e-001,-4.775032390218792e-003
	7.599611302955579e-006,7.957326291789681e-004
	7.599611302955579e-006,7.957326291789681e-004
	4.607314788851305e-005,1.590355250239490e-003
	5.060110647226982e-005,1.589821493706561e-003
	-2.023051695512279e-005,9.018457040972516e-007
	3.798303513337483e-005,1.590783086731515e-003
	1.994813690120816e-007,9.985282608415436e-006
	-9.972575326464317e-008,2.989158333243238e-009
	7.599611302910511e-006,7.957326291799711e-004
	4.607314788846070e-005,1.590355250241005e-003
	5.060110647231812e-005,1.589821493701773e-003
	3.798303513337542e-005,1.590783086731856e-003
	7.599611302958978e-006,7.957326291789680e-004
	4.607314788851458e-005,1.590355250239490e-003
	4.607314788851305e-005,1.590355250239490e-003
	5.060110647225891e-005,1.589821493706560e-003
	7.083162342739261e-005,1.588919648002463e-003
	3.798303513338208e-005,1.590783086731515e-003
	1.994813690120815e-007,9.985282608415436e-006
	2.992071222767247e-007,9.982293450082188e-006
	-1.424563821659785e-004,-5.576677742464398e-003
1		1.023292992280754e+001,0.000000000000000e+000
	3.132980108354630e-004,1.021442678934527e-002
	5.221742655537441e-004,2.043205641416570e-002
	9.999999999999999e-001,0.000000000000000e+000
	1.000104620344545e+000,-4.184985046172192e-006
	9.995080339377449e-001,-2.442120203633960e-002
	5.933214274022663e-004,1.300643667049902e-002
	1.000104540892602e+000,-5.033325101861871e-006
	9.994687465120179e-001,-1.952628374692941e-002
	2.991069485936725e-004,1.008952489898907e-002
	1.000104582400192e+000,-4.729149078744332e-006
	9.995256657254950e-001,-1.953284185679952e-002
	1.000052345598965e+000,-1.325914215453278e-006
	9.999568523200054e-001,-9.772518414775600e-003
	4.999784261600027e-001,-4.886259207387800e-003
	7.957773246623620e-006,8.142660417133456e-004
	7.957773246623620e-006,8.142660417133456e-004
	4.824305622478589e-005,1.627342725643398e-003
	5.298286504863909e-005,1.626770868485629e-003
	-2.118231337664421e-005,9.662846732509760e-007
	3.977242711998226e-005,1.627801136752895e-003
	2.088762547182811e-007,1.021762962482044e-005
	-1.044217561171820e-007,3.202835475171679e-009
	7.957773246707448e-006,8.142660417102108e-004
	4.824305622476431e-005,1.627342725642023e-003
	5.298286504863812e-005,1.626770868486685e-003
	3.977242712001419e-005,1.627801136753293e-003
	7.957773246627015e-006,8.142660417133456e-004
	4.824305622476895e-005,1.627342725643398e-003
	4.824305622478589e-005,1.627342725643398e-003
	5.298286504865080e-005,1.626770868485629e-003
	7.416517842528329e-005,1.625804583812378e-003
	3.977242711998841e-005,1.627801136752895e-003
	2.088762547182811e-007,1.021762962482044e-005
	3.132980108354630e-007,1.021442678934527e-005
	-1.491649978947462e-004,-5.706398402212543e-003
2		1.047128548050899e+001,0.000000000000000e+000
	3.280519886955764e-004,1.045193976213212e-002
	5.467652812202341e-004,2.090731130607092e-002
	9.999999999999999e-001,0.000000000000000e+000
	1.000109548408986e+000,-4.405700782925472e-006
	9.994848571536554e-001,-2.498958876711710e-002
	6.212431386966851e-004,1.330831762329253e-002
	1.000109461953296e+000,-5.314547395333240e-006
	9.994437429500048e-001,-1.998021488125602e-002
	3.131935529020087e-004,1.032416374996369e-002
	1.000109507224453e+000,-4.988728331744781e-006
	9.995033261543200e-001,-1.998724114761631e-002
	1.000054812459547e+000,-1.381472173270920e-006
	9.999548186776185e-001,-1.000015394937645e-002
	4.999774093388092e-001,-5.000076974688223e-003
	8.332815160676441e-006,8.332310397669312e-004
	8.332815160676443e-006,8.332310397669313e-004
	5.051508917774334e-005,1.665187701607047e-003
	5.547658360756915e-005,1.664575027821724e-003
	-2.217880872951647e-005,1.035324910157157e-006
	4.164608368867908e-005,1.665678871088945e-003
	2.187132925246578e-007,1.045537154393880e-005
	-1.093386961709188e-007,3.431781806684882e-009
	8.332815160686458e-006,8.332310397644318e-004
	5.051508917774948e-005,1.665187701604459e-003
	5.547658360759291e-005,1.664575027820815e-003
	4.164608368863923e-005,1.665678871088810e-003
	8.332815160670229e-006,8.332310397669314e-004
	5.051508917774950e-005,1.665187701607047e-003
	5.051508917774334e-005,1.665187701607047e-003
	5.547658360757768e-005,1.664575027821724e-003
	7.765539233708563e-005,1.663539702911567e-003
	4.164608368868450e-005,1.665678871088945e-003
	2.187132925246577e-007,1.045537154393880e-005
	3.280519886955764e-007,1.045193976213212e-005
	-1.561892849271384e-004,-5.839128011823291e-003
3		1.071519305237606e+001,0.000000000000000e+000
	3.435002105217833e-004,1.069495571656560e-002
	5.725134716521945e-004,2.139358852093411e-002
	1.000000000000000e+000,3.469446951953614e-018
	1.000114708480945e+000,-4.640366390681883e-006
	9.994605889360496e-001,-2.557118231975806e-002
	6.504768421419912e-004,1.361715334894451e-002
	1.000114614377704e+000,-5.614026704965636e-006
	9.994175642474521e-001,-2.044465558529053e-002
	3.279430866774399e-004,1.056424114930191e-002
	1.000114663763627e+000,-5.265030276355165e-006
	9.994799352087674e-001,-2.045218338376392e-002
	1.000057395568928e+000,-1.440088893514199e-006
	9.999526891776768e-001,-1.023309210689196e-002
	4.999763445888384e-001,-5.116546053445977e-003
	8.725532604276463e-006,8.526376681665366e-004
	8.725532604276463e-006,8.526376681665366e-004
	5.289404623829675e-005,1.703909862790631e-003
	5.808751085434577e-005,1.703253463215464e-003
	-2.322209441340315e-005,1.109294597400161e-006
	4.360796965966421e-005,1.704436130224492e-003
	2.290132611304112e-007,1.069863280436851e-005
	-1.144869493913721e-007,3.677087802899446e-009
	8.725532604340521e-006,8.526376681647343e-004
	5.289404623829471e-005,1.703909862791690e-003
	5.808751085433277e-005,1.703253463218241e-003
	4.360796965964258e-005,1.704436130225706e-003
	8.725532604271964e-006,8.526376681665367e-004
	5.289404623828875e-005,1.703909862790630e-003
	5.289404623829675e-005,1.703909862790631e-003
	5.808751085434327e-005,1.703253463215464e-003
	8.130960526774890e-005,1.702144168618064e-003
	4.360796965966104e-005,1.704436130224492e-003
	2.290132611304112e-007,1.069863280436851e-005
	3.435002105217833e-007,1.069495571656560e-005
	-1.635440726176774e-004,-5.974935757199874e-003
4		1.096478196143185e+001,0.000000000000000e+000
	3.596752900294123e-004,1.094360073416788e-002
	5.994732028242432e-004,2.189114139007378e-002
	1.000000000000000e+000,3.469446951953614e-018
	1.000120111470975e+000,-4.889936196936923e-006
	9.994351779296568e-001,-2.616628799077763e-002
	6.810839929265926e-004,1.393310036078842e-002
	1.000120009015878e+000,-5.933022937625390e-006
	9.993901553336650e-001,-2.091984610747756e-002
	3.433867011018224e-004,1.080988185683509e-002
	1.000120062901007e+000,-5.559206737238906e-006
	9.994554434795190e-001,-2.092791118770838e-002
	1.000060100404709e+000,-1.501961833405563e-006
	9.999504593011114e-001,-1.047145642344368e-002
	4.999752296505556e-001,-5.235728211721840e-003
	9.136758633090902e-006,8.724962051341893e-004
	9.136758633090906e-006,8.724962051341895e-004
	5.538495179061651e-005,1.743529331747595e-003
	6.082114018440617e-005,1.742826090378328e-003
	-2.431435893141789e-005,1.188545279776007e-006
	4.566223608789221e-005,1.744093203638713e-003
	2.397979127948308e-007,1.094754065590590e-005
	-1.198773772345815e-007,3.939921738024909e-009
	9.136758633109288e-006,8.724962051349011e-004
	5.538495179059507e-005,1.743529331749249e-003
	6.082114018446029e-005,1.742826090376504e-003
	4.566223608784773e-005,1.744093203640543e-003
	9.136758633093711e-006,8.724962051341896e-004
	5.538495179062870e-005,1.743529331747595e-003
	5.538495179061652e-005,1.743529331747595e-003
	6.082114018440832e-005,1.742826090378328e-003
	8.513549911582407e-005,1.741637545098552e-003
	4.566223608789925e-005,1.744093203638713e-003
	2.397979127948309e-007,1.094754065590590e-005
	3.596752900294123e-007,1.094360073416788e-005
	-1.712448846088455e-004,-6.113892371555353e-003
5		1.122018454301963e+001,0.000000000000000e+000
	3.766113678598918e-004,1.119800368358408e-002
	6.277013865302817e-004,2.240022890239441e-002
	1.000000000000000e+000,0.000000000000000e+000
	1.000125768801554e+000,-5.155431698730326e-006
	9.994085703668515e-001,-2.677521802158044e-002
	7.131289062786067e-004,1.425631842783968e-002
	1.000125657224046e+000,-6.272884724704830e-006
	9.993614585725430e-001,-2.140603196874661e-002
	3.595570066327992e-004,1.106121340146905e-002
	1.000125716029227e+000,-5.872490734418895e-006
	9.994297992421953e-001,-2.141467262260999e-002
	1.000062932702538e+000,-1.567302076312810e-006
	9.999481243157370e-001,-1.071537331426256e-002
	4.999740621578685e-001,-5.357686657131281e-003
	9.567365566732562e-006,8.928171676821873e-004
	9.567365566732562e-006,8.928171676821873e-004
	5.799306558593534e-005,1.784066677656298e-003
	6.368322095860312e-005,1.783313257001825e-003
	-2.545789232622272e-005,1.273453521864747e-006
	4.781322898017118e-005,1.784670839325447e-003
	2.510900186703899e-007,1.120222521881033e-005
	-1.255213491895019e-007,4.221535226245533e-009
	9.567365566764833e-006,8.928171676810307e-004
	5.799306558595451e-005,1.784066677654641e-003
	6.368322095859378e-005,1.783313257001516e-003
	4.781322898014328e-005,1.784670839326136e-003
	9.567365566740907e-006,8.928171676821874e-004
	5.799306558593176e-005,1.784066677656298e-003
	5.799306558593535e-005,1.784066677656298e-003
	6.368322095860282e-005,1.783313257001826e-003
	8.914111328482584e-005,1.782039803479961e-003
	4.781322898016101e-005,1.784670839325447e-003
	2.510900186703899e-007,1.120222521881033e-005
	3.766113678598918e-007,1.119800368358408e-005
	-1.793079711101265e-004,-6.256070166884343e-003
6		1.148153621496883e+001,0.000000000000000e+000
	3.943441825698457e-004,1.145829627485206e-002
	6.572575987893835e-004,2.292111581886017e-002
	1.000000000000000e+000,-3.469446951953614e-018
	1.000131692430985e+000,-5.437946332372338e-006
	9.993807099547253e-001,-2.739829174835897e-002
	7.466788887764826e-004,1.458697062301117e-002
	1.000131570887972e+000,-6.635055697043827e-006
	9.993314136445485e-001,-2.190346406240427e-002
	3.764881409272471e-004,1.131836613593513e-002
	1.000131635073924e+000,-6.206202244070370e-006
	9.994029483495485e-001,-2.191272130405400e-002
	1.000065898468270e+000,-1.636335294751337e-006
	9.999456792661957e-001,-1.096497214086498e-002
	4.999728396330979e-001,-5.482486070432488e-003
	1.001826683952492e-005,9.136113171308519e-004
	1.001826683952492e-005,9.136113171308519e-004
	6.072389369794309e-005,1.825542925150827e-003
	6.667977028529126e-005,1.824735750558936e-003
	-2.665509081176908e-005,1.364422682539101e-006
	5.006549841731948e-005,1.826190253468440e-003
	2.629134162195377e-007,1.146281954400811e-005
	-1.314307663503079e-007,4.523269156051714e-009
	1.001826683948842e-005,9.136113171307063e-004
	6.072389369798342e-005,1.825542925149285e-003
	6.667977028529967e-005,1.824735750556354e-003
	5.006549841734803e-005,1.826190253468182e-003
	1.001826683952323e-005,9.136113171308520e-004
	6.072389369794299e-005,1.825542925150827e-003
	6.072389369794308e-005,1.825542925150828e-003
	6.667977028528467e-005,1.824735750558936e-003
	9.333486109706033e-005,1.823371327876397e-003
	5.006549841732137e-005,1.826190253468440e-003
	2.629134162195378e-007,1.146281954400811e-005
	3.943441825698457e-007,1.145829627485206e-005
	-1.877503426563343e-004,-6.401543065846838e-003
7		1.174897554939530e+001,0.000000000000000e+000
	4.129111448723716e-004,1.172461311418124e-002
	6.882042036807089e-004,2.345407278840830e-002
	1.000000000000000e+000,0.000000000000000e+000
	1.000137894878414e+000,-5.738650582421194e-006
	9.993515377569153e-001,-2.803583575463876e-002
	7.818043755152542e-004,1.492522337050968e-002
	1.000137762447367e+000,-7.021081202306450e-006
	9.992999574233977e-001,-2.241239875474175e-002
	3.942158398841751e-004,1.158147329212513e-002
	1.000137832518479e+000,-6.561754367976487e-006
	9.993748341187034e-001,-2.242231651331983e-002
	1.000069003990685e+000,-1.709302782041539e-006
	9.999431189634226e-001,-1.122038527980161e-002
	4.999715594817113e-001,-5.610192639900807e-003
	1.049041893852122e-005,9.348896647516310e-004
	1.049041893852122e-005,9.348896647516310e-004
	6.358319998131856e-005,1.867979563245988e-003
	6.981708533078320e-005,1.867114806128287e-003
	-2.790846160862358e-005,1.461884814577238e-006
	5.242380809991809e-005,1.868673140270422e-003
	2.752930588083374e-007,1.172945967422706e-005
	-1.376180860640343e-007,4.846560045816330e-009
	1.049041893851405e-005,9.348896647540037e-004
	6.358319998136044e-005,1.867979563244352e-003
	6.981708533077245e-005,1.867114806128198e-003
	5.242380809993825e-005,1.868673140270794e-003
	1.049041893853390e-005,9.348896647516310e-004
	6.358319998132447e-005,1.867979563245988e-003
	6.358319998131856e-005,1.867979563245988e-003
	6.981708533077927e-005,1.867114806128287e-003
	9.772554693940677e-005,1.865652921313710e-003
	5.242380809993285e-005,1.868673140270422e-003
	2.752930588083373e-007,1.172945967422706e-005
	4.129111448723716e-007,1.172461311418124e-005
	-1.965898054094306e-004,-6.550386634062378e-003
8		1.202264434617413e+001,0.000000000000000e+000
	4.323514152748094e-004,1.199709175919924e-002
	7.206064828487999e-004,2.399937646524884e-002
	1.000000000000000e+000,0.000000000000000e+000
	1.000144389249995e+000,-6.058797454034856e-006
	9.993209920699394e-001,-2.868818402647149e-002
	8.185790733726695e-004,1.527124649225912e-002
	1.000144244921401e+000,-7.432615495800085e-006
	9.992670238472347e-001,-2.293309798626177e-002
	4.127775119462442e-004,1.185067103697458e-002
	1.000144321429891e+000,-6.940659940547073e-006
	9.993453972132208e-001,-2.294372331214942e-002
	1.000072255854811e+000,-1.786462557436946e-006
	9.999404379736162e-001,-1.148174819301634e-002
	4.999702189868081e-001,-5.740874096508169e-003
	1.098482343289257e-005,9.566634775382418e-004
	1.098482343289257e-005,9.566634775382420e-004
	6.657701805584584e-005,1.911398554350739e-003
	7.310175618051177e-005,1.910472114230498e-003
	-2.922062799107192e-005,1.566302698108089e-006
	5.489314533701337e-005,1.912141681934497e-003
	2.882550675739905e-007,1.200228470604960e-005
	-1.440963477008187e-007,5.192946850357198e-009
	1.098482343288461e-005,9.566634775375769e-004
	6.657701805582765e-005,1.911398554352718e-003
	7.310175618049011e-005,1.910472114231912e-003
	5.489314533705820e-005,1.912141681934588e-003
	1.098482343287836e-005,9.566634775382418e-004
	6.657701805585595e-005,1.911398554350739e-003
	6.657701805584584e-005,1.911398554350739e-003
	7.310175618051769e-005,1.910472114230498e-003
	1.023223841715837e-004,1.908905811532390e-003
	5.489314533701310e-005,1.912141681934497e-003
	2.882550675739906e-007,1.200228470604960e-005
	4.323514152748094e-007,1.199709175919924e-005
	-2.058449980738286e-004,-6.702678112759486e-003
9		1.230268770812381e+001,0.000000000000000e+000
	4.527059852632696e-004,1.227587277462028e-002
	7.545327709306202e-004,2.455730962749086e-002
	9.999999999999999e-001,0.000000000000000e+000
	1.000151189266265e+000,-6.399728334348375e-006
	9.992890082937951e-001,-2.935567811027387e-002
	8.570801106279897e-004,1.562521325318396e-002
	1.000151031935359e+000,-7.871429437719331e-006
	9.992325437840706e-001,-2.346582937342024e-002
	4.322123158049091e-004,1.212609852885532e-002
	1.000151115485827e+000,-7.344538604197106e-006
	9.993145755197528e-001,-2.347721265896933e-002
	1.000075660955875e+000,-1.868090550066065e-006
	9.999376306066876e-001,-1.174919949985319e-002
	4.999688153033438e-001,-5.874599749926596e-003
	1.150252909899430e-005,9.789442841085939e-004
	1.150252909899430e-005,9.789442841085939e-004
	6.971166383950146e-005,1.955822343363761e-003
	7.654067927404921e-005,1.954829828665210e-003
	-3.059433455444953e-005,1.678172017215451e-006
	5.747873149798065e-005,1.956618558795968e-003
	3.018267856673505e-007,1.228143685287058e-005
	-1.508791995959190e-007,5.564078250307286e-009
	1.150252909904957e-005,9.789442841061995e-004
	6.971166383953428e-005,1.955822343362531e-003
	7.654067927406428e-005,1.954829828665592e-003
	5.747873149804237e-005,1.956618558793280e-003
	1.150252909898342e-005,9.789442841085937e-004
	6.971166383949271e-005,1.955822343363761e-003
	6.971166383950146e-005,1.955822343363761e-003
	7.654067927403974e-005,1.954829828665210e-003
	1.071350138284987e-004,1.953151656647995e-003
	5.747873149798780e-005,1.956618558795968e-003
	3.018267856673506e-007,1.228143685287058e-005
	4.527059852632696e-007,1.227587277462028e-005
	-2.155354304962942e-004,-6.858496451792816e-003
10		1.258925411794167e+001,0.000000000000000e+000
	4.740177621903284e-004,1.256109978828437e-002
	7.900545971660216e-004,2.512816129702707e-002
	9.999999999999999e-001,6.938893903907228e-018
	1.000158309290787e+000,-6.762879270656717e-006
	9.992555187965572e-001,-3.003866727330480e-002
	8.973881931948499e-004,1.598730040517223e-002
	1.000158137748493e+000,-8.339418732220338e-006
	9.991964448912373e-001,-2.401086631076653e-002
	4.525612416601820e-004,1.240789797443296e-002
	1.000158229002908e+000,-7.775124386247622e-006
	9.992823040190499e-001,-2.402306152651455e-002
	1.000079226513910e+000,-1.954481867195642e-006
	9.999346909041621e-001,-1.202288105075045e-002
	4.999673454520811e-001,-6.011440525375222e-003
	1.204463414562316e-005,1.001743880740271e-003
	1.204463414562316e-005,1.001743880740271e-003
	7.299374865486806e-005,2.001273866844025e-003
	8.014107143795672e-005,2.000210574336192e-003
	-3.203245271139950e-005,1.798023689664485e-006
	6.018603294864617e-005,2.002126959602276e-003
	3.160368349756933e-007,1.256706150874270e-005
	-1.579809272146351e-007,5.961720458337556e-009
	1.204463414562975e-005,1.001743880739804e-003
	7.299374865492287e-005,2.001273866843442e-003
	8.014107143797110e-005,2.000210574336813e-003
	6.018603294871460e-005,2.002126959598536e-003
	1.204463414562299e-005,1.001743880740271e-003
	7.299374865486300e-005,2.001273866844025e-003
	7.299374865486806e-005,2.001273866844025e-003
	8.014107143795393e-005,2.000210574336193e-003
	1.121735241493562e-004,1.998412550646528e-003
	6.018603294864662e-005,2.002126959602276e-003
	3.160368349756933e-007,1.256706150874270e-005
	4.740177621903283e-007,1.256109978828437e-005
	-2.256815240221089e-004,-7.017922343035110e-003
11		1.288249551693134e+001,0.000000000000000e+000
	4.963316580286409e-004,1.285291954751081e-002
	8.272468334639975e-004,2.571222686060028e-002
	1.000000000000000e+000,0.000000000000000e+000
	1.000165764360103e+000,-7.149787694869099e-006
	9.992204527726971e-001,-3.073750866676909e-002
	9.395877677383474e-004,1.635768822952332e-002
	1.000165577283113e+000,-8.838612746087106e-006
	9.991586514686174e-001,-2.456848807335581e-002
	4.738671961922520e-004,1.269621468594080e-002
	1.000165676966280e+000,-8.234273812699271e-006
	9.992485146510689e-001,-2.458155302079489e-002
	1.000082960089039e+000,-2.045952153034367e-006
	9.999316126265087e-001,-1.230293800266197e-002
	4.999658063132543e-001,-6.151469001330986e-003
	1.261228854419133e-005,1.025074337542412e-003
	1.261228854419133e-005,1.025074337542412e-003
	7.643019293423418e-005,2.047776562248516e-003
	8.391048454128171e-005,2.046637455050810e-003
	-3.353798642601171e-005,1.926426360393691e-006
	6.302077249369114e-005,2.048690591938281e-003
	3.309151754353567e-007,1.285930731308947e-005
	-1.654164825932844e-007,6.387765578653373e-009
	1.261228854416514e-005,1.025074337542090e-003
	7.643019293424215e-005,2.047776562249054e-003
	8.391048454125485e-005,2.046637455052000e-003
	6.302077249368343e-005,2.048690591936773e-003
	1.261228854418373e-005,1.025074337542412e-003
	7.643019293423110e-005,2.047776562248516e-003
	7.643019293423419e-005,2.047776562248516e-003
	8.391048454128858e-005,2.046637455050810e-003
	1.174484709672934e-004,2.044711028690415e-003
	6.302077249369376e-005,2.048690591938281e-003
	3.309151754353565e-007,1.285930731308947e-005
	4.963316580286409e-007,1.285291954751081e-005
	-2.363046536887903e-004,-7.181038254088890e-003
12		1.318256738556407e+001,0.000000000000000e+000
	5.196946821597821e-004,1.315148197570381e-002
	8.661878492081026e-004,2.630980819196635e-002
	1.000000000000000e+000,6.938893903907228e-018
	1.000173570215069e+000,-7.562099625825837e-006
	9.991837360948440e-001,-3.145256749152967e-002
	9.837671919552930e-004,1.673656057766994e-002
	1.000173366154980e+000,-9.371183947184945e-006
	9.991190843053878e-001,-2.513897991929377e-002
	4.961750914086005e-004,1.299119713881567e-002
	1.000173475060517e+000,-8.723974596620830e-006
	9.992131361739193e-001,-2.515297650133662e-002
	1.000086869597495e+000,-2.142839044261268e-006
	9.999283892398698e-001,-1.258951889624655e-002
	4.999641946199349e-001,-6.294759448123276e-003
	1.320669646876541e-005,1.048948004766858e-003
	1.320669646876541e-005,1.048948004766858e-003
	8.002824054977427e-005,2.095354377228333e-003
	8.785682079936773e-005,2.094134061278882e-003
	-3.511407819504389e-005,2.063989070139411e-006
	6.598894134832009e-005,2.096333692793590e-003
	3.464931670483206e-007,1.315832621626254e-005
	-1.732015151114617e-007,6.844240558724313e-009
	1.320669646880351e-005,1.048948004766093e-003
	8.002824054981755e-005,2.095354377229609e-003
	8.785682079937207e-005,2.094134061280252e-003
	6.598894134830687e-005,2.096333692795987e-003
	1.320669646877789e-005,1.048948004766858e-003
	8.002824054978430e-005,2.095354377228333e-003
	8.002824054977427e-005,2.095354377228333e-003
	8.785682079936093e-005,2.094134061278882e-003
	1.229708989944116e-004,2.092070072208743e-003
	6.598894134831242e-005,2.096333692793590e-003
	3.464931670483205e-007,1.315832621626254e-005
	5.196946821597821e-007,1.315148197570381e-005
	-2.474271923333105e-004,-7.347928462287712e-003
13		1.348962882591653e+001,0.000000000000000e+000
	5.441560383743676e-004,1.345694022914161e-002
	9.069596730957916e-004,2.692121377505814e-002
	1.000000000000000e+000,0.000000000000000e+000
	1.000181743333636e+000,-8.001577383539085e-006
	9.991452911586878e-001,-3.218421716640518e-002
	1.030018912305464e-003,1.712410490994678e-002
	1.000181520705049e+000,-9.939458006036350e-006
	9.990776605200189e-001,-2.572263319226218e-002
	5.195319375369152e-004,1.329299702963604e-002
	1.000181639701940e+000,-9.246354941823409e-006
	9.991760940163845e-001,-2.573762770262449e-002
	1.000090963328383e+000,-2.245503729528253e-006
	9.999250139021695e-001,-1.288277573486754e-002
	4.999625069510847e-001,-6.441387867433770e-003
	1.382911885115346e-005,1.073377519261501e-003
	1.382911885115346e-005,1.073377519261501e-003
	8.379547379627665e-005,2.144031778973555e-003
	9.198834875251140e-005,2.142724477854679e-003
	-3.676401528567158e-005,2.211364111331328e-006
	6.909681166317797e-005,2.145081039268110e-003
	3.628036347214239e-007,1.346427354591653e-005
	-1.813524036529435e-007,7.333316774919626e-009
	1.382911885116755e-005,1.073377519260171e-003
	8.379547379627338e-005,2.144031778974031e-003
	9.198834875249139e-005,2.142724477856909e-003
	6.909681166317907e-005,2.145081039266816e-003
	1.382911885114413e-005,1.073377519261501e-003
	8.379547379627761e-005,2.144031778973556e-003
	8.379547379627665e-005,2.144031778973555e-003
	9.198834875251416e-005,2.142724477854679e-003
	1.287523640381830e-004,2.140513113743347e-003
	6.909681166318293e-005,2.145081039268110e-003
	3.628036347214240e-007,1.346427354591653e-005
	5.441560383743676e-007,1.345694022914161e-005
	-2.590725566978813e-004,-7.518679088894587e-003
14		1.380384264602884e+001,0.000000000000000e+000
	5.697672262664535e-004,1.376945075387385e-002
	9.496481623181162e-004,2.754675882804432e-002
	9.999999999999999e-001,6.938893903907228e-018
	1.000190300965127e+000,-8.470107851373667e-006
	9.991050367207137e-001,-3.293283949902262e-002
	1.078439649490548e-003,1.752051233216106e-002
	1.000190058032612e+000,-1.054592460623948e-005
	9.990342933932501e-001,-2.631974542385846e-002
	5.439869401409270e-004,1.360176933429629e-002
	1.000190188072382e+000,-9.803693504895069e-006
	9.991373101237221e-001,-2.633580885665901e-002
	1.000095249961230e+000,-2.354332620050843e-006
	9.999214794485528e-001,-1.318286406544545e-002
	4.999607397242764e-001,-6.591432032722725e-003
	1.448087605646655e-005,1.098375811068783e-003
	1.448087605646656e-005,1.098375811068783e-003
	8.773982905498822e-005,2.193833763596176e-003
	9.631371994686705e-005,2.192433291604352e-003
	-3.849123623945145e-005,2.369250084218959e-006
	7.235094962753654e-005,2.194957959411417e-003
	3.798809360516628e-007,1.377730807417047e-005
	-1.898862902147908e-007,7.857320296618952e-009
	1.448087605654306e-005,1.098375811064734e-003
	8.773982905503218e-005,2.193833763594296e-003
	9.631371994688721e-005,2.192433291604226e-003
	7.235094962754867e-005,2.194957959411594e-003
	1.448087605646076e-005,1.098375811068783e-003
	8.773982905497615e-005,2.193833763596176e-003
	8.773982905498823e-005,2.193833763596176e-003
	9.631371994685740e-005,2.192433291604352e-003
	1.348049561863185e-004,2.190064041520133e-003
	7.235094962753467e-005,2.194957959411417e-003
	3.798809360516627e-007,1.377730807417047e-005
	5.697672262664535e-007,1.376945075387385e-005
	-2.712652556219330e-004,-7.693378133762252e-003
15		1.412537544622754e+001,0.000000000000000e+000
	5.965821472123941e-004,1.408917334264478e-002
	9.943431793983353e-004,2.818676542816602e-002
	1.000000000000000e+000,6.938893903907228e-018
	1.000199261166090e+000,-8.969711325237590e-006
	9.990628877284377e-001,-3.369882485918786e-002
	1.129130591986354e-003,1.792597762970061e-002
	1.000198996029915e+000,-1.119324901318122e-005
	9.989888921937650e-001,-2.693062043556886e-002
	5.695916016433731e-004,1.391767236634453e-002
	1.000199138154482e+000,-1.039843006213521e-005
	9.990967027964630e-001,-2.694782881653542e-002
	1.000099738584368e+000,-2.469739139488932e-006
	9.999177783761496e-001,-1.348994306120801e-002
	4.999588891880748e-001,-6.744971530604003e-003
	1.516335068483851e-005,1.123956110172376e-003
	1.516335068483851e-005,1.123956110172376e-003
	9.186961316828599e-005,2.244785865539440e-003
	1.008419863458817e-004,2.243285598879640e-003
	-4.029933765241254e-005,2.538395167063840e-006
	7.575822917684889e-005,2.245990343190842e-003
	3.977610321859413e-007,1.409759208552124e-005
	-1.988211150264528e-007,8.418742876463032e-009
	1.516335068480732e-005,1.123956110174290e-003
	9.186961316830283e-005,2.244785865538813e-003
	1.008419863458744e-004,2.243285598879586e-003
	7.575822917684784e-005,2.245990343192174e-003
	1.516335068482699e-005,1.123956110172376e-003
	9.186961316827909e-005,2.244785865539440e-003
	9.186961316828597e-005,2.244785865539440e-003
	1.008419863458658e-004,2.243285598879640e-003
	1.411413239982942e-004,2.240747203712576e-003
	7.575822917684771e-005,2.245990343190841e-003
	3.977610321859413e-007,1.409759208552124e-005
	5.965821472123941e-007,1.408917334264478e-005
	-2.840309404079921e-004,-7.872115509863775e-003
16		1.445439770745927e+001,0.000000000000000e+000
	6.246572151316452e-004,1.441627119175178e-002
	1.041138777020322e-003,2.884156263722127e-002
	1.000000000000000e+000,-6.938893903907228e-018
	1.000208642837793e+000,-9.502550991110153e-006
	9.990187551428146e-001,-3.448257235472962e-002
	1.182197597942658e-003,1.834069929889500e-002
	1.000208353418288e+000,-1.188428445324935e-005
	9.989413619962713e-001,-2.755556844017771e-002
	5.963998274475435e-004,1.424086783540431e-002
	1.000208508768567e+000,-1.103317693074493e-005
	9.990541865218944e-001,-2.757400318093908e-002
	1.000104438714166e+000,-2.592165641452857e-006
	9.999139028281033e-001,-1.380417560638242e-002
	4.999569514140517e-001,-6.902087803191211e-003
	1.587799050525524e-005,1.150131953395081e-003
	1.587799050525524e-005,1.150131953395081e-003
	9.619352055605539e-005,2.296914167000694e-003
	1.055826185014211e-004,2.295307012977038e-003